# vtk DataFile Version 4.0
vtk output
ASCII
DATASET POLYDATA
POINTS 32 float
0.002 0.012 0.002 0.052 0.012 0.002 0.052 0.012 0.032 
0.002 0.012 0.032 0.002 0.032 0.002 0.052 0.032 0.002 
0.052 0.032 0.032 0.002 0.032 0.032 0 0 0 
0 0 0.034 0 0.034 0 0 0.034 0.034 
0.074 0 0 0.074 0 0.034 0.074 0.034 0 
0.074 0.034 0.034 0 0 0 0 0 0.034 
0.074 0 0 0.074 0 0.034 0 0.034 0 
0 0.034 0.034 0.074 0.034 0 0.074 0.034 0.034 
0 0 0 0.074 0 0 0 0.034 0 
0.074 0.034 0 0 0 0.034 0.074 0 0.034 
0 0.034 0.034 0.074 0.034 0.034 
POLYGONS 20 80
3 0 1 3 
3 2 3 1 
3 0 1 4 
3 5 4 1 
3 2 3 6 
3 7 6 3 
3 0 3 4 
3 7 4 3 
3 8 9 10 
3 11 10 9 
3 12 14 13 
3 15 13 14 
3 16 18 17 
3 19 17 18 
3 20 21 22 
3 23 22 21 
3 24 26 25 
3 27 25 26 
3 28 29 30 
3 31 30 29 

POINT_DATA 32
FIELD FieldData 1
VELOCITY 3 32 double
0 0 0 0 0 0 0 0 0 
0 0 0 0 0 0 0 0 0 
0 0 0 0 0 0 0 0 0 
0 0 0 0 0 0 0 0 0 
0 0 0 0 0 0 0 0 0 
0 0 0 0 0 0 0 0 0 
0 0 0 0 0 0 0 0 0 
0 0 0 0 0 0 0 0 0 
0 0 0 0 0 0 0 0 0 
0 0 0 0 0 0 0 0 0 
0 0 0 0 0 0 
